# Data file generated from xyz2data_pqeq.py by Saber

6       atoms
2  atom types

0.0000 40.0000 xlo xhi
0.0000 40.0000 ylo yhi
0.0000 40.0000 zlo zhi

0.0000 0.0000 0.0000 xy xz yz

Masses

1 15.999400   # O 
2 12.010700   # C 

Atoms

1 1  2 0.000000 17.776700 20.023200 20.344700 0.000000 0.000000 0.000000
2 1  1 0.000000 17.090300 19.956700 21.277800 0.000000 0.000000 0.000000
3 1  1 0.000000 18.461200 20.089400 19.409500 0.000000 0.000000 0.000000
4 1  2 0.000000 22.223300 19.976800 19.655300 0.000000 0.000000 0.000000
5 1  1 0.000000 21.538800 19.910600 20.590500 0.000000 0.000000 0.000000
6 1  1 0.000000 22.909700 20.043300 18.722200 0.000000 0.000000 0.000000


