# Data file generated from xyz2data_pqeq.py by Saber

6       atoms
2  atom types

0.0000 40.0000 xlo xhi
0.0000 40.0000 ylo yhi
0.0000 40.0000 zlo zhi

0.0000 0.0000 0.0000 xy xz yz

Masses

1 15.999400   # O 
2 12.010700   # C 

Atoms

1 1  2 0.000000 17.974300 20.021100 20.314100 0.000000 0.000000 0.000000
2 1  1 0.000000 17.287900 19.954700 21.247100 0.000000 0.000000 0.000000
3 1  1 0.000000 18.658800 20.087300 19.378800 0.000000 0.000000 0.000000
4 1  2 0.000000 22.025700 19.978900 19.685900 0.000000 0.000000 0.000000
5 1  1 0.000000 21.341200 19.912700 20.621200 0.000000 0.000000 0.000000
6 1  1 0.000000 22.712100 20.045300 18.752900 0.000000 0.000000 0.000000


