# Data file generated from xyz2data_pqeq.py by Saber

6       atoms
2  atom types

0.0000 40.0000 xlo xhi
0.0000 40.0000 ylo yhi
0.0000 40.0000 zlo zhi

0.0000 0.0000 0.0000 xy xz yz

Masses

1 15.999400   # O 
2 12.010700   # C 

Atoms

1 1  2 0.000000 18.211100 20.025600 20.197900 0.000000 0.000000 0.000000
2 1  1 0.000000 17.683900 19.947000 21.227200 0.000000 0.000000 0.000000
3 1  1 0.000000 18.733200 20.104900 19.162700 0.000000 0.000000 0.000000
4 1  2 0.000000 21.788900 19.974400 19.802100 0.000000 0.000000 0.000000
5 1  1 0.000000 21.266800 19.895100 20.837300 0.000000 0.000000 0.000000
6 1  1 0.000000 22.316100 20.053000 18.772800 0.000000 0.000000 0.000000


