# Data file generated from xyz2data_pqeq.py by Saber

6       atoms
2  atom types

0.0000 40.0000 xlo xhi
0.0000 40.0000 ylo yhi
0.0000 40.0000 zlo zhi

0.0000 0.0000 0.0000 xy xz yz

Masses

1 15.999400   # O 
2 12.010700   # C 

Atoms

1 1  2 0.000000 17.579100 20.025300 20.375400 0.000000 0.000000 0.000000
2 1  1 0.000000 16.892600 19.958800 21.308400 0.000000 0.000000 0.000000
3 1  1 0.000000 18.263600 20.091500 19.440100 0.000000 0.000000 0.000000
4 1  2 0.000000 22.420900 19.974700 19.624600 0.000000 0.000000 0.000000
5 1  1 0.000000 21.736400 19.908500 20.559900 0.000000 0.000000 0.000000
6 1  1 0.000000 23.107400 20.041200 18.691600 0.000000 0.000000 0.000000


