# Data file generated from xyz2data_pqeq.py by Saber

6       atoms
2  atom types

0.0000 40.0000 xlo xhi
0.0000 40.0000 ylo yhi
0.0000 40.0000 zlo zhi

0.0000 0.0000 0.0000 xy xz yz

Masses

1 15.999400   # O 
2 12.010700   # C 

Atoms

1 1  2 0.000000 18.406720 20.025700 20.143270 0.000000 0.000000 0.000000
2 1  1 0.000000 17.947920 19.941700 21.203570 0.000000 0.000000 0.000000
3 1  1 0.000000 18.849320 20.111200 19.071570 0.000000 0.000000 0.000000
4 1  2 0.000000 21.593420 19.974300 19.856770 0.000000 0.000000 0.000000
5 1  1 0.000000 21.153920 19.890600 20.929970 0.000000 0.000000 0.000000
6 1  1 0.000000 22.048720 20.056500 18.794870 0.000000 0.000000 0.000000


