# Data file generated from xyz2data_pqeq.py by Saber

6       atoms
2  atom types

0.0000 40.0000 xlo xhi
0.0000 40.0000 ylo yhi
0.0000 40.0000 zlo zhi

0.0000 0.0000 0.0000 xy xz yz

Masses

1 15.999400   # O 
2 12.010700   # C 

Atoms

1 1  2 0.000000 18.309000 20.025500 20.172600 0.000000 0.000000 0.000000
2 1  1 0.000000 17.813000 19.944800 21.216700 0.000000 0.000000 0.000000
3 1  1 0.000000 18.796200 20.107100 19.120300 0.000000 0.000000 0.000000
4 1  2 0.000000 21.691000 19.974500 19.827400 0.000000 0.000000 0.000000
5 1  1 0.000000 21.203800 19.892900 20.879700 0.000000 0.000000 0.000000
6 1  1 0.000000 22.187000 20.055200 18.783300 0.000000 0.000000 0.000000


