# Data file generated from xyz2data_pqeq.py by Saber

6       atoms
2  atom types

0.0000 40.0000 xlo xhi
0.0000 40.0000 ylo yhi
0.0000 40.0000 zlo zhi

0.0000 0.0000 0.0000 xy xz yz

Masses

1 15.999400   # O 
2 12.010700   # C 

Atoms

1 1  2 0.000000 18.357880 20.025500 20.158870 0.000000 0.000000 0.000000
2 1  1 0.000000 17.879480 19.943900 21.210870 0.000000 0.000000 0.000000
3 1  1 0.000000 18.824080 20.108300 19.097170 0.000000 0.000000 0.000000
4 1  2 0.000000 21.642180 19.974500 19.841070 0.000000 0.000000 0.000000
5 1  1 0.000000 21.175780 19.891300 20.902770 0.000000 0.000000 0.000000
6 1  1 0.000000 22.120580 20.056500 18.789270 0.000000 0.000000 0.000000


