# Data file generated from xyz2data_pqeq.py by Saber

6       atoms
2  atom types

0.0000 40.0000 xlo xhi
0.0000 40.0000 ylo yhi
0.0000 40.0000 zlo zhi

0.0000 0.0000 0.0000 xy xz yz

Masses

1 15.999400   # O 
2 12.010700   # C 

Atoms

1 1  2 0.000000 18.162300 20.025600 20.211000 0.000000 0.000000 0.000000
2 1  1 0.000000 17.618800 19.948100 21.231900 0.000000 0.000000 0.000000
3 1  1 0.000000 18.701000 20.103700 19.184300 0.000000 0.000000 0.000000
4 1  2 0.000000 21.837700 19.974400 19.789000 0.000000 0.000000 0.000000
5 1  1 0.000000 21.299000 19.896300 20.815700 0.000000 0.000000 0.000000
6 1  1 0.000000 22.381200 20.051900 18.768100 0.000000 0.000000 0.000000


