# Data file generated from xyz2data_pqeq.py by Saber

6       atoms
2  atom types

0.0000 40.0000 xlo xhi
0.0000 40.0000 ylo yhi
0.0000 40.0000 zlo zhi

0.0000 0.0000 0.0000 xy xz yz

Masses

1 15.999400   # O 
2 12.010700   # C 

Atoms

1 1  2 0.000000 17.727300 20.023700 20.352400 0.000000 0.000000 0.000000
2 1  1 0.000000 17.040900 19.957300 21.285400 0.000000 0.000000 0.000000
3 1  1 0.000000 18.411800 20.089900 19.417100 0.000000 0.000000 0.000000
4 1  2 0.000000 22.272700 19.976300 19.647600 0.000000 0.000000 0.000000
5 1  1 0.000000 21.588200 19.910100 20.582900 0.000000 0.000000 0.000000
6 1  1 0.000000 22.959100 20.042700 18.714600 0.000000 0.000000 0.000000


