# Data file generated from xyz2data_pqeq.py by Saber

6       atoms
2  atom types

0.0000 40.0000 xlo xhi
0.0000 40.0000 ylo yhi
0.0000 40.0000 zlo zhi

0.0000 0.0000 0.0000 xy xz yz

Masses

1 15.999400   # O 
2 12.010700   # C 

Atoms

1 1  2 0.000000 17.924900 20.021700 20.321800 0.000000 0.000000 0.000000
2 1  1 0.000000 17.238500 19.955200 21.254800 0.000000 0.000000 0.000000
3 1  1 0.000000 18.609400 20.087900 19.386500 0.000000 0.000000 0.000000
4 1  2 0.000000 22.075100 19.978300 19.678200 0.000000 0.000000 0.000000
5 1  1 0.000000 21.390600 19.912100 20.613500 0.000000 0.000000 0.000000
6 1  1 0.000000 22.761500 20.044800 18.745200 0.000000 0.000000 0.000000


