# Data file generated from xyz2data_pqeq.py by Saber

6       atoms
2  atom types

0.0000 40.0000 xlo xhi
0.0000 40.0000 ylo yhi
0.0000 40.0000 zlo zhi

0.0000 0.0000 0.0000 xy xz yz

Masses

1 15.999400   # O 
2 12.010700   # C 

Atoms

1 1  2 0.000000 18.113400 20.025600 20.223900 0.000000 0.000000 0.000000
2 1  1 0.000000 17.553800 19.949300 21.236500 0.000000 0.000000 0.000000
3 1  1 0.000000 18.669300 20.102500 19.206700 0.000000 0.000000 0.000000
4 1  2 0.000000 21.886600 19.974400 19.776100 0.000000 0.000000 0.000000
5 1  1 0.000000 21.330700 19.897500 20.793300 0.000000 0.000000 0.000000
6 1  1 0.000000 22.446200 20.050700 18.763500 0.000000 0.000000 0.000000


