# Data file generated from xyz2data_pqeq.py by Saber

6       atoms
2  atom types

0.0000 40.0000 xlo xhi
0.0000 40.0000 ylo yhi
0.0000 40.0000 zlo zhi

0.0000 0.0000 0.0000 xy xz yz

Masses

1 15.999400   # O 
2 12.010700   # C 

Atoms

1 1  2 0.000000 17.826100 20.022700 20.337100 0.000000 0.000000 0.000000
2 1  1 0.000000 17.139700 19.956200 21.270100 0.000000 0.000000 0.000000
3 1  1 0.000000 18.510600 20.088900 19.401800 0.000000 0.000000 0.000000
4 1  2 0.000000 22.173900 19.977300 19.662900 0.000000 0.000000 0.000000
5 1  1 0.000000 21.489400 19.911100 20.598200 0.000000 0.000000 0.000000
6 1  1 0.000000 22.860300 20.043800 18.729900 0.000000 0.000000 0.000000


