# Data file generated from xyz2data_pqeq.py by Saber

6       atoms
2  atom types

0.0000 40.0000 xlo xhi
0.0000 40.0000 ylo yhi
0.0000 40.0000 zlo zhi

0.0000 0.0000 0.0000 xy xz yz

Masses

1 15.999400   # O 
2 12.010700   # C 

Atoms

1 1  2 0.000000 18.016700 20.025100 20.256500 0.000000 0.000000 0.000000
2 1  1 0.000000 17.411300 19.952100 21.243000 0.000000 0.000000 0.000000
3 1  1 0.000000 18.619300 20.098400 19.266300 0.000000 0.000000 0.000000
4 1  2 0.000000 21.983300 19.974900 19.743500 0.000000 0.000000 0.000000
5 1  1 0.000000 21.380700 19.901600 20.733700 0.000000 0.000000 0.000000
6 1  1 0.000000 22.588700 20.047900 18.757000 0.000000 0.000000 0.000000


