# Data file generated from xyz2data_pqeq.py by Saber

6       atoms
2  atom types

0.0000 40.0000 xlo xhi
0.0000 40.0000 ylo yhi
0.0000 40.0000 zlo zhi

0.0000 0.0000 0.0000 xy xz yz

Masses

1 15.999400   # O 
2 12.010700   # C 

Atoms

1 1  2 0.000000 18.455820 20.025580 20.132000 0.000000 0.000000 0.000000
2 1  1 0.000000 18.010620 19.934080 21.197000 0.000000 0.000000 0.000000
3 1  1 0.000000 18.880520 20.118680 19.053200 0.000000 0.000000 0.000000
4 1  2 0.000000 21.544120 19.974480 19.868200 0.000000 0.000000 0.000000
5 1  1 0.000000 21.122020 19.896280 20.948900 0.000000 0.000000 0.000000
6 1  1 0.000000 21.986920 20.050880 18.800700 0.000000 0.000000 0.000000


