# Data file generated from xyz2data_pqeq.py by Saber

6       atoms
2  atom types

0.0000 40.0000 xlo xhi
0.0000 40.0000 ylo yhi
0.0000 40.0000 zlo zhi

0.0000 0.0000 0.0000 xy xz yz

Masses

1 15.999400   # O 
2 12.010700   # C 

Atoms

1 1  2 0.000000 17.875500 20.022200 20.329400 0.000000 0.000000 0.000000
2 1  1 0.000000 17.189100 19.955700 21.262400 0.000000 0.000000 0.000000
3 1  1 0.000000 18.560000 20.088400 19.394200 0.000000 0.000000 0.000000
4 1  2 0.000000 22.124500 19.977800 19.670600 0.000000 0.000000 0.000000
5 1  1 0.000000 21.440000 19.911600 20.605800 0.000000 0.000000 0.000000
6 1  1 0.000000 22.810900 20.044300 18.737600 0.000000 0.000000 0.000000


