# Data file generated from xyz2data_pqeq.py by Saber

6       atoms
2  atom types

0.0000 40.0000 xlo xhi
0.0000 40.0000 ylo yhi
0.0000 40.0000 zlo zhi

0.0000 0.0000 0.0000 xy xz yz

Masses

1 15.999400   # O 
2 12.010700   # C 

Atoms

1 1  2 0.000000 17.529700 20.025800 20.383000 0.000000 0.000000 0.000000
2 1  1 0.000000 16.843200 19.959300 21.316100 0.000000 0.000000 0.000000
3 1  1 0.000000 18.214200 20.092000 19.447800 0.000000 0.000000 0.000000
4 1  2 0.000000 22.470300 19.974200 19.617000 0.000000 0.000000 0.000000
5 1  1 0.000000 21.785800 19.908000 20.552200 0.000000 0.000000 0.000000
6 1  1 0.000000 23.156800 20.040700 18.683900 0.000000 0.000000 0.000000


