# Data file generated from xyz2data_pqeq.py by Saber

6       atoms
2  atom types

0.0000 40.0000 xlo xhi
0.0000 40.0000 ylo yhi
0.0000 40.0000 zlo zhi

0.0000 0.0000 0.0000 xy xz yz

Masses

1 15.999400   # O 
2 12.010700   # C 

Atoms

1 1  2 0.000000 17.677900 20.024200 20.360100 0.000000 0.000000 0.000000
2 1  1 0.000000 16.991500 19.957800 21.293100 0.000000 0.000000 0.000000
3 1  1 0.000000 18.362400 20.090400 19.424800 0.000000 0.000000 0.000000
4 1  2 0.000000 22.322100 19.975800 19.639900 0.000000 0.000000 0.000000
5 1  1 0.000000 21.637600 19.909600 20.575200 0.000000 0.000000 0.000000
6 1  1 0.000000 23.008500 20.042200 18.706900 0.000000 0.000000 0.000000


