# Data file generated from xyz2data_pqeq.py by Saber

6       atoms
2  atom types

0.0000 40.0000 xlo xhi
0.0000 40.0000 ylo yhi
0.0000 40.0000 zlo zhi

0.0000 0.0000 0.0000 xy xz yz

Masses

1 15.999400   # O 
2 12.010700   # C 

Atoms

1 1  2 0.000000 17.628500 20.024800 20.367700 0.000000 0.000000 0.000000
2 1  1 0.000000 16.942100 19.958300 21.300700 0.000000 0.000000 0.000000
3 1  1 0.000000 18.313000 20.091000 19.432500 0.000000 0.000000 0.000000
4 1  2 0.000000 22.371500 19.975200 19.632300 0.000000 0.000000 0.000000
5 1  1 0.000000 21.687000 19.909000 20.567500 0.000000 0.000000 0.000000
6 1  1 0.000000 23.057900 20.041700 18.699300 0.000000 0.000000 0.000000


