# Data file generated from xyz2data_pqeq.py by Saber

6       atoms
2  atom types

0.0000 40.0000 xlo xhi
0.0000 40.0000 ylo yhi
0.0000 40.0000 zlo zhi

0.0000 0.0000 0.0000 xy xz yz

Masses

1 15.999400   # O 
2 12.010700   # C 

Atoms

1 1  2 0.000000 18.064900 20.025500 20.239000 0.000000 0.000000 0.000000
2 1  1 0.000000 17.484800 19.950600 21.240300 0.000000 0.000000 0.000000
3 1  1 0.000000 18.642000 20.100800 19.233700 0.000000 0.000000 0.000000
4 1  2 0.000000 21.935100 19.974500 19.761000 0.000000 0.000000 0.000000
5 1  1 0.000000 21.358000 19.899200 20.766300 0.000000 0.000000 0.000000
6 1  1 0.000000 22.515200 20.049400 18.759700 0.000000 0.000000 0.000000


